58
 energy: -78.955007122132 gnorm: 0.000703289208 xtb: 6.7.1 (edcfbbe)
Ru          -1.19568620704709       -1.76437676074078        0.39924760867154
H           -2.59343902875215       -1.10919593731436        0.23162053956313
N           -1.24911406631027       -1.02869906053343        2.34678281301310
C           -2.10213502862143       -1.55560369605762        3.24808164624826
C           -0.47660191978323        0.00503656347450        2.73739110896109
C           -2.20155127087381       -1.07255435241669        4.54452377946242
C           -0.54677732274728        0.53857029197633        4.01669258671171
C           -1.41732116912158       -0.00442886536236        4.94517160552085
H           -2.89903843847120       -1.53103334360301        5.22912889482659
H            0.08986464080074        1.37035591605599        4.27582459452433
H           -1.48333015498782        0.39118123344130        5.94624276895837
P           -2.23337257629920       -3.54652733475402        1.36610304653898
C           -3.74800735797873       -4.38823499193777        0.58636370830760
C           -1.16673272628047       -4.87137106548514        2.23345086173197
P           -0.10682339135883        0.16700191189873        0.05033434670650
O            1.30864762661917        0.31761089569553       -0.68042187754186
O           -0.74965741514143        1.57391472776669       -0.46973383058288
C           -3.00115245046988       -2.66687828366170        2.80344075657369
H           -3.91392592978315       -2.21484842866099        2.39541091777501
H           -3.27557175481461       -3.31948882424979        3.63652534012198
C            0.49463255298880        0.56548707822201        1.75242763965692
H            0.65928485164090        1.63610052728049        1.89683035108115
H            1.45419449933046        0.04495180244531        1.84064853094674
C           -1.19752990250118       -2.39533115366077       -1.32864423256530
O           -1.20740206008124       -2.78994036499651       -2.41887765688723
H            0.23385834777192       -2.32497531515895        0.64550470728917
C           -4.76945380290802       -4.94985024959857        1.57686955366430
C           -4.45412148996305       -3.33334935027395       -0.26831210732552
C           -3.24482527031342       -5.48165008425601       -0.35697569378183
H           -5.21761137661662       -4.15908734866767        2.17398455224218
H           -5.56954960947225       -5.43104347643157        1.01425851618337
H           -4.34487536976699       -5.69031755850970        2.24411739475481
H           -3.78369050274606       -2.95542399479399       -1.03775477967853
H           -5.32499347704965       -3.77579706877332       -0.75119732423105
H           -4.79236824555289       -2.48959936058210        0.32976110089429
H           -2.40834468474120       -5.10221605814096       -0.94621991035241
H           -2.92771382473540       -6.36887793297339        0.18493903761910
H           -4.03811500330398       -5.77676116023648       -1.04328356881275
C           -0.29051710856591       -4.10861988654930        3.23270327529060
C           -1.91000663078345       -5.96749509720507        2.99342577827330
C           -0.25235570782009       -5.49387561399263        1.17674916516374
H           -0.86682038887649       -3.73914601574793        4.07989676724899
H            0.48619314695921       -4.76777387572959        3.61959968512119
H            0.20002049518390       -3.26892664775199        2.74098853170919
H           -2.43953914239287       -6.63848206417549        2.32313533438213
H           -1.18203654148155       -6.56435812661950        3.54372656328436
H           -2.61029998529050       -5.55420615910483        3.71702375223925
H           -0.78147541162189       -6.20501604629883        0.54949360703005
H            0.16021789004271       -4.71050107756899        0.54057821186383
H            0.57309837885707       -6.01834899488409        1.65698935240456
C           -2.12438451519197        1.88591484401091       -0.38703696219609
H           -2.40181271189408        2.41245425209434       -1.30102599879697
H           -2.72179351920895        0.97309358885621       -0.29378720715142
H           -2.31016977072259        2.53118974820161        0.47545786687958
C            1.44335024574623       -0.14038031092172       -2.01884573934481
H            1.05041110733174       -1.15777096064098       -2.11502936320888
H            0.91522013426015        0.51774142586140       -2.71199595033204
H            2.50957028994181       -0.13300932732378       -2.24522185764407
