60
 energy: -77.653729345188 gnorm: 0.000909056090 xtb: 6.7.1 (edcfbbe)
Ru          -1.31574603458887       -1.77410743647764        0.21347330056455
H           -2.68855277719936       -1.05593349994000        0.10825934379851
N           -1.23288574564122       -1.05817770616825        2.14535291890835
C           -2.06268732975406       -1.53549810202539        3.09454799540183
C           -0.38469611430275       -0.06688509848884        2.48761539804023
C           -2.06609637024459       -1.04178827836612        4.39018774260603
C           -0.35614192393631        0.47531789364345        3.76404332214767
C           -1.20541891862314       -0.01502266366100        4.74073075089646
H           -2.74851625602433       -1.45919057006697        5.11520417388650
H            0.33731235810559        1.27261746655800        3.98464458986321
H           -1.19639400897302        0.38759812728964        5.74131504448260
P           -2.37794781585984       -3.51756847788965        1.23037373451632
C           -3.96104510483857       -4.30096827121278        0.53015841646453
C           -1.32794263113886       -4.88480655538302        2.05374577834506
P           -0.22502927588455        0.12939197712123       -0.22587236442417
N            0.97921059479836        0.19656679408690       -1.37958161323065
N           -0.85783314634646        1.68284274316632       -0.49574979093699
C           -3.03566921209882       -2.60416666114265        2.70239287438897
H           -3.94551790423873       -2.11125648244909        2.33704311048691
H           -3.29800328910470       -3.24119317761493        3.55145301926190
C            0.55694962882685        0.42781747914944        1.43957816488713
H            0.85350485327911        1.46779937301612        1.60435559772592
H            1.45360821526229       -0.20647173371766        1.44133876897584
C           -1.39549571310273       -2.36695217530171       -1.52898353882167
O           -1.42174686359777       -2.71958465665908       -2.63186081907281
H            0.09863779266588       -2.40188039127905        0.37753356206084
C           -4.95714313673593       -4.81973101115963        1.56836147592881
C           -4.65994952475422       -3.21701033878861       -0.29337570302161
C           -3.54780224237430       -5.41396624061090       -0.43359066955440
H           -5.32722793564862       -4.01464280241809        2.19903935641632
H           -5.81233586576904       -5.24759176048061        1.04481260288846
H           -4.53886706631862       -5.59291625082035        2.20199667985693
H           -4.00605131397123       -2.86379094127263       -1.08882335571762
H           -5.56729288123593       -3.62244801647170       -0.74058013338114
H           -4.93846573132135       -2.36181719899351        0.31915305913734
H           -2.72579505070669       -5.06776992430852       -1.06257023555142
H           -3.24076603220429       -6.31324650997842        0.09421079028410
H           -4.38407404390562       -5.67723283914735       -1.08079804351964
C           -0.37288030188507       -4.15793934210302        3.00655258461442
C           -2.07937322214869       -5.94615386920022        2.85359448171827
C           -0.49137932989224       -5.54721895599399        0.95755308075194
H           -0.89161887549421       -3.75989648968123        3.87759708705450
H            0.39208586151150       -4.84879566052387        3.36049972245304
H            0.12957499264330       -3.34219876504535        2.48745500630979
H           -2.66260217483732       -6.59997924892894        2.21146220625142
H           -1.35266151199366       -6.56755856664891        3.37791646601043
H           -2.73215348321609       -5.50062571184925        3.60195808118426
H           -1.07723962581960       -6.24086438268995        0.36217962218405
H           -0.08299477155684       -4.78313498374515        0.29581349633203
H            0.33726638358348       -6.09985139666274        1.39927868492250
C           -1.96854330549950        2.09081867093913        0.35047082476867
H           -1.12196119298018        1.73043348196199       -1.47905340737039
H           -2.27774030487613        3.09928034408899        0.07195075002601
H           -2.83111032834263        1.41794810604990        0.27540189875988
H           -1.63575500219611        2.10224177302307        1.39025693099545
C            2.00588413358603        1.22619829707398       -1.38660057919508
H            1.31817915323469       -0.72930588793282       -1.61632078690017
H            2.86218597305116        0.98004321799391       -0.75107103553931
H            2.36291874967825        1.37403475568773       -2.40731410614444
H            1.55858519814162        2.15272060067335       -1.03254600100412
