74
 energy: -89.734619577054 gnorm: 0.000793848286 xtb: 6.7.1 (edcfbbe)
Ru          -1.21977650746895       -1.93755801592662        0.39466871597797
H           -2.57168822834569       -1.28914503587064        0.02427271959847
N           -1.41459773692721       -1.01642947867988        2.22904421102951
C           -1.86637028527592       -1.68804845233408        3.30611368079345
C           -0.95143853939776        0.23553651061702        2.42015515265671
C           -1.69592412856527       -1.21181328476087        4.59701252930859
C           -0.77249022272422        0.77160532456835        3.68636203958823
C           -1.09927792105858        0.02130844201655        4.80360158298620
H           -2.03952114046931       -1.80344380141676        5.43188833938961
H           -0.37886781148385        1.77140544849478        3.79089077034010
H           -0.93427390563106        0.40172667899752        5.79917364652058
P           -2.21561098654160       -3.70723459804523        1.45561561689252
C           -3.88779712058854       -4.44340139587975        0.90425665959601
C           -1.09068163362674       -5.13541814229523        2.04160336325025
P           -0.10827911981226       -0.01791139990735       -0.16700032803732
C            1.78256257540199        0.06880836127944        0.10410542913746
C           -0.54339795625976        1.00404911779488       -1.71252682681060
C           -2.68173724126169       -2.92325259015423        3.06762861731062
H           -3.72140407703162       -2.58886903522699        2.95547796217724
H           -2.63474267260430       -3.61243323122014        3.91402294461333
C           -0.71110308618813        1.07123286985413        1.20135619382214
H           -1.68935831972359        1.43689784553503        0.86156218759797
H           -0.06648350406731        1.92822951866874        1.41012521858703
C           -1.05683237614858       -2.74933274076673       -1.24789039333674
O           -0.97328149785191       -3.24739382717104       -2.29175808389876
H            0.13042326340007       -2.50666213346425        0.86974043607680
C           -4.70512605550822       -5.17437934544856        1.97219214282804
C           -4.72590120927906       -3.26679728302292        0.39738719825423
C           -3.61251615362971       -5.35936040253960       -0.28856495637828
H           -4.77914929925649       -4.60013429647475        2.89287291006371
H           -5.71733374225569       -5.32106494734283        1.59483492693312
H           -4.30347507227980       -6.15346252048790        2.20476176302278
H           -4.20450350874606       -2.75062147998179       -0.40490878218987
H           -5.67869020925695       -3.63017666299417        0.01348185503639
H           -4.93561637486500       -2.54600450834560        1.18659080453312
H           -2.92942095911232       -4.86454335137484       -0.98137702848458
H           -3.17774650742758       -6.30687768556614        0.02068444825235
H           -4.53968517154248       -5.57529330886169       -0.81867858322949
C           -0.09351725553378       -4.53878286111105        3.04081583436065
C           -1.78279339261949       -6.31458785157171        2.72141234802824
C           -0.32225631493303       -5.62943718750788        0.81493943734094
H           -0.53843441388481       -4.39681629778689        4.02400891696881
H            0.75814082100924       -5.20849515143397        3.15337188390815
H            0.28137183765021       -3.58132386972274        2.68352447258929
H           -2.34959993187840       -6.91149613273482        2.01277200254892
H           -1.02002901755657       -6.96192993266735        3.15534062809841
H           -2.43866024318667       -5.98942427648581        3.52615315424289
H           -0.98304416103121       -6.09890892542389        0.09092036305820
H            0.17470689511581       -4.79191065810683        0.32719608323988
H            0.43243983847441       -6.35780379782692        1.11042601150918
C            0.25183873074536        0.43615443639022       -2.88907192051885
C           -2.02522029368033        0.74956135638299       -1.99707829880439
C           -0.34221868578406        2.51544500845251       -1.59516951832620
H            0.20956507335691       -0.65407834379603       -2.86874857800857
H           -0.18024215109485        0.77533155915707       -3.83012872528888
H            1.29133971031863        0.75289832956179       -2.86832811034087
H           -2.65509536118250        1.06494067968686       -1.16723103426405
H           -2.33104551853082        1.30364695462194       -2.88421429771949
H           -2.20030432525159       -0.31038719498077       -2.17098740096087
H           -0.94222210021260        2.93450797060237       -0.79053394824373
H            0.69348999532772        2.79104163149917       -1.43678628648503
H           -0.66787111721501        2.98098505920295       -2.52570730423600
C            2.02201438784121       -0.23643280172612        1.58686271476174
C            2.41957122267594       -1.04476508124366       -0.72849498724678
C            2.45862987424994        1.40228065168797       -0.20845979038444
H            1.44289167219457       -1.10428318635429        1.89850956003026
H            3.07476621200224       -0.46487668983309        1.75007859760961
H            1.76198849001198        0.60836098386562        2.22189278917454
H            2.41023334356932       -0.81232209886597       -1.78934512509680
H            3.45512425740051       -1.19607682786425       -0.42487721373540
H            1.87492175182775       -1.97620810392680       -0.57655361453425
H            2.47286560308787        1.61226493346072       -1.27395291048594
H            1.98241782610583        2.22877104972066        0.31561538906770
H            3.49493977646477        1.35272052608551        0.12755427780757
