60
 energy: -83.149254343975 gnorm: 0.000811378718 xtb: 6.7.1 (edcfbbe)
Ru          -1.01780102029773       -1.91459570566537        0.38602899294478
H           -2.34697169244209       -1.20177232428053        0.01789845490130
N           -1.25886787285702       -1.05272692713899        2.27179778315865
C           -2.21522894720177       -1.50529997294405        3.10336869068220
C           -0.48622625833731       -0.03189827984852        2.68608447701692
C           -2.40949585320834       -0.96572025879034        4.36693336035165
C           -0.63880475375069        0.55050548784368        3.93620255328433
C           -1.61030557341207        0.07785201450940        4.80028962765474
H           -3.19015768444656       -1.36124510342405        4.99899227918868
H            0.00582802349506        1.36737944961146        4.21995505854976
H           -1.74552415454834        0.51318022567826        5.77779850766876
P           -2.23613020168219       -3.59986717728669        1.33258139216866
C           -3.68366825265819       -4.43145465092539        0.42667884380832
C           -1.33298817523852       -4.90217029952777        2.39643630156156
P            0.16200835928686       -0.03435086723207        0.05677814338839
C            1.84283463088162        0.07930623146725       -0.76106763128950
C           -0.61991385238400        1.55102816031134       -0.57533791555725
C           -3.11732214507222       -2.59491118098757        2.61328391497014
H           -3.94720923066921       -2.12268796569980        2.07241938924935
H           -3.52492627834535       -3.18247404789811        3.44009425695700
C            0.58429666921980        0.47496119738387        1.76637865452644
H            0.70028704061001        1.56146317338985        1.84641985653450
H            1.54568441350309       -0.00260831990502        2.00279212443122
C           -0.83538000773220       -2.65579320344826       -1.28733757398706
O           -0.70620990938844       -3.10274437035365       -2.34909795744385
H            0.33802250796405       -2.52445936755207        0.84770126415311
C           -4.84068471230359       -4.88133780018181        1.31981127844018
C           -4.22989884407518       -3.40944916483760       -0.57258668713241
C           -3.12307331709592       -5.60582670206721       -0.37677460734441
H           -5.31950070855724       -4.03302679122547        1.80329265795695
H           -5.58916721298129       -5.37095551564653        0.69688632766365
H           -4.53355213053152       -5.58775587563928        2.08174970531951
H           -3.45610301631039       -3.11895454926097       -1.28081359174595
H           -5.06211376850548       -3.84519016753603       -1.12467357464303
H           -4.58762141951936       -2.50990759940874       -0.07602630765245
H           -2.20550673531507       -5.30045923352753       -0.88274460270372
H           -2.91466748550251       -6.46572478625249        0.25431862684367
H           -3.84204892977674       -5.91592010597237       -1.13440935666637
C           -0.54622843850171       -4.11251911195122        3.44785385682370
C           -2.21124575736546       -5.91677208891463        3.12478519032519
C           -0.33172557740478       -5.62541197332215        1.49387942011409
H           -1.20009794686457       -3.67108722152862        4.19851301063822
H            0.14927450249202       -4.77610806851593        3.96065948974043
H            0.03671419955296       -3.32379433951392        2.97370951423390
H           -2.69053785655168       -6.60747791146026        2.43708578516160
H           -1.58132196684741       -6.50559483773459        3.79192861974844
H           -2.97035691038076       -5.43003336442247        3.73432414182491
H           -0.81519229712340       -6.35841556793880        0.85544823183892
H            0.18406975273646       -4.90208552003054        0.86205898188062
H            0.41059178113592       -6.14434567154685        2.09888093594064
O           -0.81796763828172        2.45539295336305        0.19296712958552
C           -1.05242236164034        1.51431492768783       -2.00708703115748
H           -0.20373285417302        1.78925230904526       -2.63476068748581
H           -1.37086545226548        0.50167894075670       -2.25967616283608
H           -1.85950508290678        2.22256662699734       -2.18353764677456
O            2.75185623182494        0.61818335002764       -0.18867113754451
C            1.92325061464964       -0.61941064768625       -2.07754170808511
H            1.91761033191665       -1.69168893984460       -1.86817865445406
H            1.03670433027372       -0.40882712833991       -2.67543908021722
H            2.83321033645638       -0.36022954959318       -2.61464620289333
