50
 energy: -71.655939464207 gnorm: 0.000726969454 xtb: 6.7.1 (edcfbbe)
Ru          -1.56983865507056       -1.63268512588321        0.36202435475463
H           -2.99198836615117       -1.02415147243582        0.46583052460246
N           -1.35034226429806       -1.08667136225188        2.35621035815509
C           -2.07482882348357       -1.69406042302117        3.31417811444465
C           -0.53485607195700       -0.07652155677950        2.71567543312153
C           -2.00062265482892       -1.30565302648626        4.64426790306690
C           -0.43445839668314        0.36653598360890        4.02523403221601
C           -1.17590682781264       -0.25711256645884        5.01339444616340
H           -2.59935828342008       -1.82043585864484        5.37983810968835
H            0.22338093537767        1.18845254293367        4.25934484608572
H           -1.11452824528166        0.06717300076187        6.03976464814575
P           -2.44067700149173       -3.54019836731480        1.30971048137620
C           -4.03277928579552       -4.33659117417909        0.65470701435535
C           -1.24084984241300       -4.89299682057308        1.91121574107423
P           -0.64485483943095        0.35445350364214        0.05740553663027
Br           0.94396021570456        0.89944500250827       -1.36964107643572
Br          -1.75538155700349        2.29543760179870        0.08459030876806
C           -3.01496530331664       -2.78276817501213        2.90077043194099
H           -3.97857782401417       -2.31675728797331        2.65784597918278
H           -3.16931760524500       -3.50503243860193        3.70685826554624
C            0.29643719507473        0.55263774358474        1.64229399267812
H            0.56220941822141        1.58874472628213        1.87770104543960
H            1.22020950143141       -0.02993193733762        1.50920848372392
C           -1.80702717994073       -2.09447702237433       -1.41338994335758
O           -1.95348197007510       -2.36861765984619       -2.52252516046447
H           -0.12296429929889       -2.21026749951361        0.34683568355988
C           -4.90393478339185       -5.00754346057197        1.71777535496699
C           -4.85883929744686       -3.22605776558882        0.00124186605059
C           -3.64386214423400       -5.33082247300506       -0.44074626391100
H           -5.26372891992898       -4.28761325621928        2.44924801041956
H           -5.77535817679288       -5.43957404530030        1.22640640874028
H           -4.39106808895734       -5.80729896088845        2.23889880029787
H           -4.31189058985796       -2.77248453704313       -0.82317247276978
H           -5.78580510850706       -3.64368529289080       -0.38979409285711
H           -5.11768120017894       -2.44094216476915        0.70892709238344
H           -2.89643512540882       -4.88504848112954       -1.09962409506288
H           -3.24938307434973       -6.25531637700747       -0.02688203088132
H           -4.51734116653561       -5.58172717825012       -1.04140505928283
C           -0.25055797981673       -4.19623837832312        2.85087981044270
C           -1.87017182706193       -6.06250549966721        2.66438096922981
C           -0.46726756583949       -5.40735940882567        0.69557039263362
H           -0.71616246518371       -3.90613390949481        3.79200582969715
H            0.57243019038654       -4.87185800687203        3.08102035656936
H            0.17282850213533       -3.31249057125455        2.37436342286601
H           -2.46615643612989       -6.69146557791594        2.00940964248165
H           -1.07212008829855       -6.68240796032061        3.07309323208860
H           -2.48397950612368       -5.72524261488033        3.49759433937352
H           -1.07280317535078       -6.06116961952690        0.07530409556251
H           -0.12871051356419       -4.56987573419408        0.08561080087606
H            0.40751779691659       -5.96881845819627        1.02105402619320
