56
 energy: -87.641023184102 gnorm: 0.000543154946 xtb: 6.7.1 (edcfbbe)
Ru          -1.25950157035927       -1.90858663722924        0.26884850998726
H           -2.64196945670929       -1.25152822967383        0.08351843808190
N           -1.29004943849848       -1.09119857530444        2.18201606558671
C           -2.14631639005501       -1.55612268809263        3.11128970475880
C           -0.49369638973763       -0.05761314821664        2.51471950186068
C           -2.21490716431239       -1.01349891909513        4.38670698180315
C           -0.52692768720446        0.53247574147940        3.76790115710118
C           -1.39709968383643        0.04865708711337        4.72996441898784
H           -2.91697287084325       -1.41988771217392        5.09854036868210
H            0.12823702712184        1.36211045098286        3.98178727222341
H           -1.43959908594956        0.48965817932897        5.71288061097672
P           -2.33879912682104       -3.62803455272902        1.32313186436881
C           -3.86983336630841       -4.45934155234352        0.57041791121113
C           -1.29698790576467       -4.93308545475185        2.24495019670967
P           -0.21047165393449       -0.01341080383816       -0.17206269149923
C            1.35052318230874        0.23069986586123       -1.19657645153860
C           -0.96685667997149        1.66214559970483       -0.62218876443651
C           -3.07783982906442       -2.65923203424583        2.71794364092348
H           -3.97503854843904       -2.19682523518781        2.28743400318549
H           -3.37224263988172       -3.26515320693886        3.57862932818018
C            0.47439743657911        0.43857301041166        1.48050116584415
H            0.68164416807937        1.50678883170607        1.59597524907039
H            1.41741701931493       -0.11823458291228        1.57362377826950
C           -1.28360302840730       -2.63376342304613       -1.43311081104155
O           -1.29893333860512       -3.10054261159061       -2.48650434577321
H            0.16023732130674       -2.49559380700267        0.53015205518912
C           -4.90476648322409       -4.94597271957768        1.58624067180905
C           -4.54646952371250       -3.42534289451417       -0.33210072361304
C           -3.39331628391620       -5.60853846314498       -0.31921161233135
H           -5.33769370736853       -4.11500054242380        2.13814094116444
H           -5.71316293877342       -5.43874177957710        1.04654119359660
H           -4.49867604396416       -5.65943476119141        2.29336181238043
H           -3.87420437084955       -3.11054783847678       -1.12768708189081
H           -5.43640773904563       -3.86298848856167       -0.78293663622114
H           -4.85084149188077       -2.54030782545466        0.22254698863694
H           -2.54476144879341       -5.28135884465076       -0.92211018668056
H           -3.10464905579349       -6.47950417190310        0.26346473490710
H           -4.19256352457275       -5.91085715394541       -0.99485836144066
C           -0.40512172253642       -4.14969141131774        3.21400167459291
C           -2.06926153194327       -5.97690597424704        3.04820664956138
C           -0.39825187068148       -5.62203345885459        1.21667960157440
H           -0.97348108729266       -3.73679606557938        4.04608659938365
H            0.35736992410510       -4.80972711470469        3.62612366243629
H            0.10329698002159       -3.33962481336856        2.69220868785321
H           -2.61540704358701       -6.66066709200153        2.40506665906510
H           -1.35770583312979       -6.56913808057524        3.62383225141368
H           -2.75880075660183       -5.51570136398315        3.75270861260750
H           -0.94613610058579       -6.34186239255818        0.61664588228172
H            0.03891445783432       -4.87838638005046        0.55052831948030
H            0.40989845937168       -6.15053227207703        1.72060462454531
F           -1.77880435752847        1.53851496833683       -1.68471561266930
F           -1.74231763201616        2.01788501383540        0.43816889580993
H           -0.25822177922469        2.48661814007961       -0.81385209256366
F            1.00030324113631        0.42322445591388       -2.48472548362799
F            2.00974112395832        1.35649242995899       -0.80495753735204
H            2.04929299609099       -0.61849770422101       -1.14250668296422
