68
 energy: -83.410444922320 gnorm: 0.000593603875 xtb: 6.7.1 (edcfbbe)
Ru          -1.22524843671253       -1.85207383990794        0.35722871252593
H           -2.58161494923051       -1.26130774090076       -0.11590780093328
N           -1.48654668735468       -0.92173810063266        2.19198446712055
C           -1.86963075579026       -1.62302927763415        3.27588008937111
C           -1.05956227624915        0.34296048115720        2.38142235575010
C           -1.66966395771565       -1.15500190375065        4.56563626319835
C           -0.84890776960073        0.87024376879284        3.64624010820516
C           -1.10916636921807        0.09624367129402        4.76498278484558
H           -1.95939269917974       -1.76785531619830        5.40559410845860
H           -0.48404234797403        1.88116301695490        3.74809780857075
H           -0.91996795212635        0.47082230044264        5.75853303885180
P           -2.15843556465062       -3.65135500085408        1.42675008616408
C           -3.81574337060512       -4.43638884350628        0.89354988741602
C           -0.98115695873820       -5.04473874041365        1.99133932812328
P           -0.26293345711726        0.11663910819342       -0.20350820607828
C            1.56881961061825        0.47475888382913       -0.04283860510468
C           -0.64629170166557        1.06928673318217       -1.76991895551366
C           -2.63594257767601       -2.89030754661424        3.04733422905449
H           -3.69082505652071       -2.60136533013448        2.95380865109492
H           -2.54446037237762       -3.57924561205642        3.88999184006640
C           -0.90371880246606        1.19282862746062        1.15865552132049
H           -1.91156543650816        1.49727163447066        0.85214594163748
H           -0.29766752961543        2.08475516115537        1.33974158337694
C           -0.94009615373483       -2.73608883587274       -1.23123505162922
O           -0.76101464243426       -3.32707744416644       -2.21135421040686
H            0.15396252818668       -2.30701726258222        0.88534264021514
C           -4.58731501564633       -5.21424921775861        1.96258513215591
C           -4.70464359455408       -3.28105177166705        0.42557539475499
C           -3.53067797559636       -5.32012215694732       -0.32098517428288
H           -4.65030975024414       -4.66608778679601        2.89980918181490
H           -5.60544383757829       -5.37513838425341        1.60765794011649
H           -4.15738729456438       -6.18929831179515        2.15824950569470
H           -4.20864995336512       -2.71817143200129       -0.36100477259772
H           -5.64158966767304       -3.67306187443612        0.03105490432373
H           -4.94494002588269       -2.59571652159596        1.23748721028050
H           -2.88590272960258       -4.78538528123042       -1.02094798364084
H           -3.04822590667633       -6.25278388006672       -0.03788279964592
H           -4.46040353038267       -5.56728286967713       -0.83300873260587
C           -0.00068929420279       -4.42866450144613        2.99498718504281
C           -1.62776239157059       -6.25915555606856        2.65399266501661
C           -0.20035646289415       -5.49215292839569        0.75469216934390
H           -0.44228271134050       -4.32442203532735        3.98418385359897
H            0.87747943348117       -5.06625803305581        3.08713570933776
H            0.33248054184646       -3.44996544415941        2.65429774461597
H           -2.17635873379922       -6.86320709010111        1.93720665621643
H           -0.84026582980471       -6.88634620150152        3.07303499614713
H           -2.29033459101352       -5.97120381398739        3.46723413421868
H           -0.85370696244507       -5.93558383551908        0.00740203000522
H            0.30004407845073       -4.63698008531984        0.30270784193888
H            0.55309212638698       -6.22957043598608        1.03067193330773
C           -0.69571543944084        0.05476403396595       -2.91113447528949
C           -1.97416516959311        1.81472421188387       -1.69994002015869
H            0.16983971135525        1.78288686448175       -1.94392197033837
H           -1.55290922996609       -0.60314569876485       -2.76892097686233
H           -0.79500458221431        0.55858714742491       -3.87193646535358
H            0.19849414089819       -0.56602356908139       -2.93377178000551
H           -1.91792306618387        2.68598668393040       -1.05001791769571
H           -2.25423216193277        2.15670999283659       -2.69551746932591
H           -2.75517713457052        1.14389573041771       -1.34291106265352
C            2.05673303806254        0.14505345157085        1.36309013796831
C            2.33811874374155       -0.34231727513380       -1.07516330602979
H            1.70979194033472        1.54854268209252       -0.23343032017974
H            1.78385135792541       -0.87843587910389        1.61704054262847
H            3.14122760464863        0.23053157527296        1.41476313174745
H            1.62929957650980        0.81226458892166        2.10886322189862
H            2.15601107855537        0.02197604713320       -2.08393171466890
H            3.40938323259366       -0.28908157709321       -0.88444365181635
H            2.02661870483584       -1.38628691407687       -1.01630527878201
