56
 energy: -84.991622342573 gnorm: 0.000683269495 xtb: 6.7.1 (edcfbbe)
Ru          -1.26424826795119       -1.84669823815976        0.32582827355387
H           -2.64285905531264       -1.17112520430872        0.11315158187901
N           -1.33064137447125       -1.05139942446841        2.24893726273048
C           -2.15492790515314       -1.57696155868475        3.17612096411000
C           -0.56813621100815       -0.00021528429113        2.60305160694207
C           -2.21123073339173       -1.09243869426487        4.47480865557646
C           -0.58893991747708        0.53078140441503        3.88478240401428
C           -1.41334570534143       -0.02446792827448        4.84727571034573
H           -2.88545350295862       -1.54961332097816        5.18298973167554
H            0.04360958929860        1.37302687938711        4.11687925907505
H           -1.44082421123954        0.36766144473246        5.85149396935575
P           -2.31681923427201       -3.60372842980579        1.33704631330917
C           -3.83579208436421       -4.44759435958669        0.56908427472368
C           -1.25511498200876       -4.91533721272080        2.22885714559636
P           -0.17292921074123        0.05944318213984       -0.09763521083788
C            1.47277144806653        0.12195437173023       -0.95909964019222
C           -0.85752041270808        1.65564861559709       -0.78482645267592
C           -3.07039195875709       -2.68434599536345        2.75641260024851
H           -3.97551057769758       -2.22577065915617        2.33849011892232
H           -3.35326086843587       -3.31690152275226        3.60156756362804
C            0.34151050231119        0.60791557765161        1.57810588530804
H            0.34538668473195        1.70144734959232        1.65426351903565
H            1.36837460339664        0.23786980019263        1.71441864084236
C           -1.23383664954656       -2.53340172099365       -1.38804979221750
O           -1.21402334997113       -2.95963344138069       -2.46075247262234
H            0.14891870117392       -2.42555482920624        0.61683745147532
C           -4.86122818520381       -4.98266487943874        1.56985705811941
C           -4.53071084554109       -3.40125299027374       -0.30440091875338
C           -3.33784615408088       -5.56156608061200       -0.35258085242102
H           -5.28897213785741       -4.17980453715862        2.16545575576413
H           -5.67442769711520       -5.45004393656435        1.01504098175171
H           -4.44712074873771       -5.72871939191770        2.23742748222628
H           -3.85742345051962       -3.04678373624781       -1.08239093196951
H           -5.40818220594068       -3.84264129101791       -0.77611713082951
H           -4.85664238022176       -2.54163971996447        0.27735218334689
H           -2.49602068970122       -5.19925171176290       -0.94477660231672
H           -3.03049535138082       -6.44173821038921        0.20589579258688
H           -4.13096966654490       -5.86184582471285       -1.03646667699860
C           -0.37710095495915       -4.14127203630273        3.21755635581694
C           -2.01216123987274       -5.98945184724330        3.00660532257244
C           -0.34456310889289       -5.56526089224153        1.18582199335625
H           -0.95335889481394       -3.75573706685207        4.05695761135497
H            0.39403900398719       -4.79907811166693        3.61664697157370
H            0.12056196545632       -3.31273728741220        2.71531959574818
H           -2.53581020107350       -6.67500950035926        2.34654372211072
H           -1.29327807860824       -6.57440292217700        3.58057286488811
H           -2.71974750898718       -5.55544141846994        3.71039684014357
H           -0.87738160695833       -6.28807189047612        0.57580568929611
H            0.07147264519230       -4.79913226631809        0.53154497023454
H            0.47885414851281       -6.08184538487144        1.67724670462837
O           -1.00713263520861        2.66554408238502       -0.15259710676060
O           -1.20752499251096        1.47987784526467       -2.04525242064312
H           -1.63706105865866        2.26565760372076       -2.42810056771611
O            2.53490011211275        0.18988027481208       -0.40637377734140
O            1.29304743520639        0.00450783760369       -2.26429368496511
H            2.13411883018724       -0.06991688333845       -2.75015739169914
