52
 energy: -73.439107459575 gnorm: 0.000483727265 xtb: 6.7.1 (edcfbbe)
Ru          -1.37424238187538       -1.86942218927242        0.36971044166463
H           -2.76695257919965       -1.20679494428780        0.22516573864494
N           -1.36951042014871       -1.11219513482692        2.30793550977341
C           -2.19945419108516       -1.61551062795325        3.24163067847291
C           -0.57389754416398       -0.08186901528327        2.65423660846006
C           -2.24327834983452       -1.11182296858864        4.53394168229879
C           -0.58428711806380        0.47047203514891        3.92554255628268
C           -1.42781522470665       -0.05205610227549        4.89100980693398
H           -2.92418510296371       -1.54700724618337        5.24918103325162
H            0.06941677931304        1.29848906459669        4.15046557266169
H           -1.45131789958497        0.35732520927463        5.88813265057641
P           -2.41580836599769       -3.63731847587177        1.39578990166923
C           -3.95744505714129       -4.45927267824922        0.65569901932283
C           -1.33602813710967       -4.95585156157419        2.25085922285003
P           -0.33222631959235        0.03927537390851       -0.04623764429432
C            1.11800184057187        0.33068353510159       -1.03747348078406
C           -1.07387501578071        1.61807662455626       -0.44671837121750
C           -3.12869645643555       -2.71637577435293        2.83653561053315
H           -4.04325517460067       -2.25262186682424        2.44526099791816
H           -3.39331363690130       -3.35187825922482        3.68564509544428
C            0.36864190212979        0.45314022236376        1.61743099116181
H            0.56693158252198        1.52129411740630        1.75308392815983
H            1.32061835361530       -0.09550579475262        1.67330533859574
C           -1.41592767375402       -2.54689922992667       -1.35225846179671
O           -1.44332825612787       -2.97673512288800       -2.42077498877768
H            0.03793779399845       -2.47922118000293        0.59401561957016
C           -4.95903205374431       -4.99461284564699        1.68036864347692
C           -4.66925624803128       -3.40197778625257       -0.19130783001165
C           -3.49211525013246       -5.57110712753316       -0.28581039006403
H           -5.37570335321497       -4.19229511070625        2.28484989735122
H           -5.78347338440593       -5.46378079847022        1.14396358816031
H           -4.52957494082727       -5.74006230308081        2.33912105961611
H           -4.02137825217098       -3.04971638588935       -0.99166847617159
H           -5.56436480365818       -3.83457047109780       -0.63668570155638
H           -4.97219423150291       -2.54198785177912        0.40259255192671
H           -2.66660899646508       -5.21327545092270       -0.90333558300153
H           -3.17383754166935       -6.45615289869697        0.25897667538409
H           -4.30742265647690       -5.86321025372101       -0.94655033599704
C           -0.42770578508767       -4.19370642123380        3.22184753268117
C           -2.07940675924846       -6.03028725493503        3.04100210970557
C           -0.45769441005172       -5.60621990665357        1.18041672202764
H           -0.97975929475337       -3.80807508134641        4.07787251903702
H            0.34697012057946       -4.86062453112103        3.59829522332656
H            0.06715730455833       -3.36675337054108        2.71360734489510
H           -2.62936305674459       -6.70422164396255        2.39065984403588
H           -1.34870384227608       -6.62813636366315        3.58590257253440
H           -2.76043872272206       -5.59777986830330        3.77159257714340
H           -1.01472447962181       -6.31255741130492        0.57261751822085
H           -0.03969228876843       -4.84183775403707        0.52534420420813
H            0.36583398712882       -6.14315889106467        1.64909128179893
N           -1.62068264180540        2.60318715522180       -0.65655299133868
N            2.05527679328447        0.47629146079002       -1.67981590504652
