70
 energy: -94.190130949708 gnorm: 0.000969667028 xtb: 6.7.1 (edcfbbe)
Ru          -0.74716500218472       -2.09407080658883        0.44896468189696
H           -1.90044097509140       -1.43957280156893       -0.35843307327902
N           -1.44075107006350       -1.00694815518139        2.06060285938167
C           -2.61872092547263       -1.30956871675390        2.63966905560202
C           -0.75095616606707        0.04697933773423        2.54190671187396
C           -3.12726050050772       -0.57971637411639        3.70396634866681
C           -1.21417003577754        0.81681765650201        3.59781248895484
C           -2.42181886740830        0.50410707800024        4.19896673185725
H           -4.07687726372107       -0.86045812796877        4.13403930853646
H           -0.62394357019975        1.65160996810354        3.94455070702718
H           -2.80098027163535        1.08661562361322        5.02369394611892
P           -2.25536579925207       -3.62353576830904        1.22094600448344
C           -3.44226225631392       -4.55286553913070        0.06476360525505
C           -1.75353518693146       -4.78408066670266        2.65359458319423
P            0.48128688467919       -0.24421086723423        0.15178834304558
C            2.23277174232761       -0.13586750982154       -0.33026154639759
C           -0.20178116812102        1.18407043653388       -0.74803734309491
C           -3.40695652999293       -2.44663929107594        2.06910424236086
H           -4.03408334489812       -2.04703148737234        1.26212175641340
H           -4.05201516223339       -2.90813582867815        2.82171439406996
C            0.56574618982823        0.35323453698081        1.90075817791984
H            0.84936134653897        1.40508708539366        2.00354381475489
H            1.34506850542082       -0.27164565426540        2.36031187076819
C           -0.16171310536491       -3.03607698655078       -1.02216040547633
O            0.20230857006356       -3.62170397931139       -1.95235366378682
H            0.41807154668484       -2.64301520210520        1.32012260148102
C           -4.81811353631864       -4.87116259039343        0.65214678157132
C           -3.64980620389613       -3.66535357706906       -1.16445138021102
C           -2.74003525643423       -5.82854826559917       -0.40259234369450
H           -5.36395787027856       -3.96268113706924        0.89616721681143
H           -5.39741895063795       -5.41210391904886       -0.09630128394190
H           -4.76358091557788       -5.49263215257012        1.53812341461972
H           -2.70047283181000       -3.47041098166977       -1.65963872175747
H           -4.31439299409184       -4.16465123810464       -1.86925037940634
H           -4.09458333978555       -2.70771548419998       -0.90169388157130
H           -1.70673961208287       -5.60180220955035       -0.67090727678319
H           -2.75022348921216       -6.60008240955299        0.36306627869151
H           -3.24043323519182       -6.22816229398634       -1.28424452645937
C           -1.24547989100289       -3.86778081706370        3.77196347924426
C           -2.84641553657684       -5.67899981448473        3.23289390304635
C           -0.57906358096042       -5.63525606271126        2.16744814320663
H           -2.05632467028219       -3.31675866713609        4.24646398966592
H           -0.75233414659301       -4.46261718900181        4.54045737752602
H           -0.51517512884766       -3.16060324550199        3.37909734010562
H           -3.14560828980560       -6.45661767398400        2.53590522866726
H           -2.45739932066832       -6.17215212630024        4.12428179219268
H           -3.72246123163607       -5.10552289745962        3.53030450821538
H           -0.90275651576110       -6.43842374784767        1.51246556495216
H            0.12768173106925       -5.00818521232818        1.62316737338985
H           -0.06190519408523       -6.08136462012450        3.01631258450587
C           -1.03596877580960        2.12733287197690       -0.15973427316349
C           -1.59981625063653        3.12833151527749       -0.93149798408689
C           -1.34874093019846        3.18557827652656       -2.29192768154260
C           -0.54063084307763        2.22969530032059       -2.88860430469788
C            0.02474040160867        1.23021828953606       -2.12179780541757
H           -1.25307891088941        2.08004485626236        0.89960387924045
H           -2.24158937603219        3.86508711702487       -0.46890843385162
H           -1.79171749395798        3.96881191189164       -2.88965191797796
H           -0.35832399294663        2.26396408055819       -3.95295868368847
H            0.64718068460989        0.46727886738749       -2.57411693868390
C            2.88309018790393        1.09195784626750       -0.41354187756023
C            4.22001600491174        1.13924316233477       -0.75998167104359
C            4.91120519568688       -0.03302849787053       -1.02692908957937
C            4.26509708793180       -1.25549050994636       -0.94840509318291
C            2.92628182086934       -1.30820569277377       -0.60095588172282
H            2.33587872345376        2.00459111816104       -0.21679264805708
H            4.72622936260573        2.09172432807221       -0.82560367165415
H            5.95548707543214        0.00970214878292       -1.30031080263424
H            4.80390808418366       -2.16712766488903       -1.16127846039238
H            2.39936141065261       -2.25234562384920       -0.53382817257426
