56
 energy: -79.185163946558 gnorm: 0.000892126813 xtb: 6.7.1 (edcfbbe)
Ru          -1.32800054496951       -1.85419903254386        0.30122983295120
H           -2.73074248950819       -1.21954093249506        0.14294371808084
N           -1.33171368142927       -1.06794010532259        2.20828284165382
C           -2.13188333226542       -1.58070954559268        3.16620289460242
C           -0.56500823493782       -0.00611531017310        2.53129059220058
C           -2.17334911586601       -1.06098695294979        4.45119150853513
C           -0.57657931246825        0.56256629810835        3.79481775935032
C           -1.38755133540477        0.02971829430308        4.78309037144606
H           -2.82854119409908       -1.50876376339402        5.18284912543191
H            0.05547807129587        1.41299591649133        3.99909341665808
H           -1.40809263543229        0.45152274021905        5.77518210604091
P           -2.31271332677597       -3.62618710708694        1.35034395170662
C           -3.84469674528556       -4.49839865125019        0.64471660340745
C           -1.19624856529087       -4.91567214434261        2.20633207190134
P           -0.33841138041844        0.08383072258189       -0.18006822417765
C            1.19602093237739        0.30223007597077       -1.20661039494363
C           -1.19525076763375        1.69031701347456       -0.59975040450941
C           -3.03372077617188       -2.71504825226218        2.79289511715742
H           -3.96712223327383       -2.28532623815821        2.40780908409764
H           -3.26648584931924       -3.34616532153067        3.65443234926103
C            0.35152786852198        0.53884724479466        1.47543890869170
H            0.52276217653412        1.61191744920801        1.60647785624193
H            1.31529340767199        0.01576428421837        1.54446699193003
C           -1.35516238139845       -2.56692962022036       -1.40710604742633
O           -1.37132820740119       -3.04517918137958       -2.45504749111693
H            0.11487342945322       -2.39635962549675        0.51974314119162
C           -4.82039104824780       -5.04728320445682        1.68719546537870
C           -4.59346543286544       -3.46894448644974       -0.20449024055317
C           -3.36523201287146       -5.60803129017485       -0.29221147482645
H           -5.25397554013815       -4.24762388430148        2.28337445475424
H           -5.63636199375288       -5.54887826266227        1.16687761472922
H           -4.36277332023276       -5.76861332935014        2.35379882130419
H           -3.96083494257834       -3.10529006408270       -1.01171864715132
H           -5.48088795432786       -3.92905419290581       -0.63796844659374
H           -4.91279688412105       -2.61254533614743        0.38591102343609
H           -2.55446801340117       -5.23546728407559       -0.92020950361940
H           -3.02138312832513       -6.48121391708295        0.25637014272208
H           -4.18032867403449       -5.92375167218621       -0.94253845906937
C           -0.29934861556166       -4.12154699858195        3.16182105194991
C           -1.89780819081748       -6.00734382093470        3.01068001262502
C           -0.31100278359583       -5.54542778580001        1.12941199707931
H           -0.85202599028416       -3.74999131212747        4.02351992353813
H            0.50279166616368       -4.76044343204299        3.52988271597063
H            0.15734644799282       -3.28019055967104        2.64163161882577
H           -2.44160225785987       -6.69626475233894        2.37095100453361
H           -1.14288660254110       -6.58522118675867        3.54443226310767
H           -2.57721854616255       -5.58995275420243        3.75147101091095
H           -0.85478443336621       -6.26878880064799        0.52960584116990
H            0.07474163141057       -4.76924694281017        0.46833774138068
H            0.53332238314161       -6.05701959094374        1.59000744657460
F           -1.69084104097554        1.62170177034571       -1.86802119353433
H           -2.04729828265175        1.83285342007714        0.07991071164802
H           -0.51716107383462        2.55543463385575       -0.55655310182849
F            0.86147362455699        0.18497512163417       -2.52544016255993
H            1.66265921667783        1.28896565921597       -1.07059623939251
H            1.90579590148560       -0.50325002518899       -0.97370438502842
