50
 energy: -72.599555664155 gnorm: 0.000436332108 xtb: 6.7.1 (edcfbbe)
Ru          -1.51497746389193       -1.66120933382835        0.35402142343325
H           -2.93741303630731       -1.05335566302798        0.37305653306764
N           -1.36694797430794       -1.05730066518409        2.32724930640682
C           -2.10445897194057       -1.65432792773217        3.28445623714299
C           -0.55747479135285       -0.04300445340509        2.69059620065727
C           -2.04284348002150       -1.26170221572609        4.61344749453794
C           -0.46697300738412        0.40108307546018        4.00086451212685
C           -1.21542012562129       -0.21680762134952        4.98784896101199
H           -2.65044004568947       -1.77152305885361        5.34544593836999
H            0.19292265703267        1.22088310629394        4.23775381290805
H           -1.15728310079638        0.10715812912121        6.01466516644719
P           -2.42466734733465       -3.53150176579082        1.31026247011429
C           -4.00211551195637       -4.33597557792745        0.62639075609321
C           -1.26485573138107       -4.88827934619883        1.98246800638086
P           -0.61148485416595        0.33449013205233        0.01884210742617
Cl           0.81190672288676        0.75645745617563       -1.29306738536474
Cl          -1.68638609668867        2.02450109563738       -0.05257617869041
C           -3.04547239643114       -2.74028676165167        2.86659281385338
H           -3.99172920678570       -2.26717299451471        2.57507426722124
H           -3.23882912151200       -3.44234312667916        3.68170137404080
C            0.28056901548587        0.59120549096804        1.62588904054118
H            0.49621470648761        1.64196763494802        1.83747026667597
H            1.22459960766149        0.04164572044590        1.52379898456508
C           -1.65329332712705       -2.18004869592348       -1.41396550100616
O           -1.72227570102403       -2.49504453845050       -2.52180323926289
H           -0.06116878166728       -2.21074047506451        0.41118263619040
C           -4.92171046040947       -4.95324849048607        1.68141356652690
C           -4.78834240131477       -3.24429206152547       -0.10243832978282
C           -3.58699496876560       -5.37580586726836       -0.41549816612115
H           -5.32737487026275       -4.19286845547383        2.34461052623819
H           -5.76079036258275       -5.42837466128855        1.17376448050291
H           -4.42786275529154       -5.70915454384457        2.28024102582876
H           -4.19990189112921       -2.82871495968353       -0.91829189309523
H           -5.70386290176284       -3.66744494562709       -0.51453579771147
H           -5.06372245805455       -2.42976129367472        0.56408256720597
H           -2.81130053910912       -4.96088168944641       -1.06132433480830
H           -3.21901340561172       -6.28824389275092        0.04626433812270
H           -4.44137397214561       -5.63952118486593       -1.03790147460665
C           -0.29750441537491       -4.17745896928683        2.93490640131010
C           -1.92528363016182       -6.03499940707002        2.74424675378750
C           -0.45806145957609       -5.43490426222670        0.80324086292651
H           -0.78794219704395       -3.86779279843268        3.85668596697533
H            0.51698851152195       -4.85049830231713        3.20053752121864
H            0.13825972941526       -3.30388315362257        2.45089373543537
H           -2.52083946489489       -6.66666142749496        2.09164058994028
H           -1.14414818094052       -6.65951304954874        3.17821189449903
H           -2.54727326326507       -5.67244949541292        3.56060109740006
H           -1.04337159042946       -6.11267657838598        0.18960774336224
H           -0.11368042819624       -4.61117977176644        0.17761635588394
H            0.41321650690543       -5.97856815634746        1.16626810955229
