50
 energy: -72.975433725461 gnorm: 0.000613746985 xtb: 6.7.1 (edcfbbe)
Ru          -2.33298990103253       -1.48205538183353        0.53867450754942
H           -3.69788970409764       -1.18324147911409        1.20536408288014
N           -1.48776903448675       -1.04468303852681        2.39471126785465
C           -1.64038091590143       -1.89685908120792        3.42873158654148
C           -0.79272673555083        0.08984477864275        2.60778644202452
C           -1.08854273301800       -1.64910308945152        4.67734868314873
C           -0.22640620480610        0.39215621173511        3.83748020827388
C           -0.36454775989619       -0.48978524346631        4.89511447793814
H           -1.23665237508088       -2.36275849610757        5.47330248913351
H            0.32136460655608        1.31415171940126        3.95418292484645
H            0.07194546656840       -0.27755608207277        5.85797150044188
P           -2.44621355589716       -3.58626080164584        1.42310461923864
C           -4.00886461053402       -4.65331799388349        1.26999470106081
C           -0.90457037093966       -4.70572956970598        1.32659471450875
P           -1.91785766842871        0.66059042142371        0.21463350729574
F           -1.22661834959552        1.36355564140479       -1.06010909595004
F           -2.87461110554813        1.95111586421158        0.45610969397698
C           -2.47711560948750       -3.11877506803960        3.21533701746189
H           -3.52139784560770       -2.84445432434485        3.41050232529308
H           -2.19171798693650       -3.92557651220982        3.89491301315051
C           -0.62589483470191        1.04120320483295        1.46547075227119
H           -0.66630886573445        2.08393616053139        1.79131518642107
H            0.33253420132347        0.86366954878695        0.96340717367849
C           -3.11589772728908       -1.87097104234113       -1.09051673118420
O           -3.61067951379394       -2.11337669637843       -2.10351098902778
H           -0.91542273711070       -1.71731756355263       -0.05547931764923
C           -4.27975483006156       -5.58151246992238        2.45531448827207
C           -5.19740730995063       -3.69836139044529        1.14094326923933
C           -3.91088251395798       -5.44615275950412       -0.03410606048884
H           -4.44945037006880       -5.01704226208020        3.36945324893340
H           -5.18539276882729       -6.15129629151988        2.24782016035285
H           -3.47809611764517       -6.29013955571312        2.62748856750332
H           -5.08770882937577       -3.06625544574807        0.26209765918213
H           -6.11771163411628       -4.27308469038537        1.04234602265002
H           -5.29528225644336       -3.05328721639159        2.01151280200290
H           -3.56362841745150       -4.79398959801264       -0.83707396277947
H           -3.23605771378353       -6.29331491340441        0.05649102673059
H           -4.89192461436665       -5.83104935576470       -0.30985026452128
C            0.24009559898420       -3.90094051934958        1.95117601676887
C           -0.99231107482888       -6.04663716682413        2.05197022814125
C           -0.58143870965829       -4.93008641971033       -0.15146520372204
H            0.13472243201893       -3.81531400762872        3.03167701865140
H            1.18941747862801       -4.39505855557805        1.74724442761070
H            0.28552595203246       -2.90305963956528        1.51595930516972
H           -1.68380775687451       -6.72708181199159        1.56369189339154
H           -0.00831938842390       -6.51566847973542        2.03568505937053
H           -1.28120770514927       -5.92495049802273        3.09416113857708
H           -1.26114736161026       -5.63996445673273       -0.61244557254303
H           -0.64812851717121       -3.98668656197143       -0.69275683058484
H            0.43114017320917       -5.31709110819778       -0.25755519509226
