50
 energy: -64.420729815141 gnorm: 0.000532075222 xtb: 6.7.1 (edcfbbe)
Ru          -2.21073096765372       -1.45289652119673        0.52224049736361
H           -3.59304952056362       -1.10014246066040        1.12553039655762
N           -1.44141045604585       -1.06953512345002        2.40604893934491
C           -1.68249242377211       -1.90513813639516        3.43505096055988
C           -0.71568335514171        0.03965383867848        2.64792726730427
C           -1.19894483585814       -1.66113089525818        4.71205227406931
C           -0.21761990210075        0.34086599379389        3.90578383903715
C           -0.45344615315427       -0.52186629335029        4.96288165688270
H           -1.41731946770303       -2.36096596965950        5.50438781631913
H            0.35577022739522        1.24398916779216        4.04695684747981
H           -0.07220482379427       -0.31118372495030        5.94933686416331
P           -2.44952673354318       -3.55681335438304        1.38596188158461
C           -4.04105414373221       -4.57004296640172        1.16258431147706
C           -0.95000619185793       -4.73746270828336        1.35442590371723
P           -1.74803871109584        0.70746408990116        0.22101307087424
H           -1.11691522805106        1.36455281823400       -0.83695733112385
H           -2.54954484769671        1.82195629196373        0.51978698539896
C           -2.54476908325178       -3.10184077937293        3.17917905754790
H           -3.58831813344813       -2.79937820196739        3.33376498202322
H           -2.31126482314084       -3.92113638779546        3.86426051371464
C           -0.42585505833394        0.94397648357578        1.48775620539694
H           -0.29627079905844        1.98268882184362        1.80313097071310
H            0.49986223747955        0.60279182047226        1.00214814197655
C           -2.92019564094425       -1.81150980031831       -1.14521194415950
O           -3.35787274500540       -2.05553321196019       -2.18584366328260
H           -0.77856169250789       -1.73207227330524       -0.01401102249775
C           -4.40372379958865       -5.48538498077461        2.33313019099171
C           -5.18272457596384       -3.56806028742617        0.97742158083717
C           -3.91440182895453       -5.36878148066477       -0.13542127966702
H           -4.60330942656352       -4.91360089006607        3.23638624145149
H           -5.31488654576889       -6.02703086165820        2.07871507150755
H           -3.63515630341836       -6.21830428487166        2.54850616026431
H           -5.00794900155241       -2.94830158348560        0.10019958655911
H           -6.12205236437951       -4.10373458177499        0.84396083829580
H           -5.28825782699050       -2.91140657810847        1.83852054248018
H           -3.50212526339234       -4.73338326763897       -0.92081773218007
H           -3.28065023382584       -6.24329135352805       -0.01282188492755
H           -4.89669042106061       -5.71270803251144       -0.45766479295384
C            0.19683673942621       -3.97435566555356        2.02585008521937
C           -1.11553153959673       -6.07445430020168        2.07292821705024
C           -0.57525085001484       -4.97039306294561       -0.11029302760698
H            0.04675108411463       -3.87625484843326        3.10005989816109
H            1.13455807491747       -4.50604543210884        1.86730108651432
H            0.29923825826187       -2.98191635007562        1.58790630572708
H           -1.81553809034058       -6.72691302101951        1.55927991709799
H           -0.15057240489488       -6.58152052944865        2.09136524905731
H           -1.43701915554805       -5.94157711558870        3.10423373309955
H           -1.24903050962573       -5.66981192058289       -0.59572819788842
H           -0.60690686497443       -4.02577024822372       -0.65397227912694
H            0.43446677987151       -5.37331563007564       -0.17941834429257
