56
 energy: -92.166371856684 gnorm: 0.000532617142 xtb: 6.7.1 (edcfbbe)
Ru          -1.50344768861120       -1.73961857980596        0.35243332232235
H           -2.93012165200990       -1.15968036593423        0.33744212680381
N           -1.33973676214108       -1.01332184502537        2.30974173746119
C           -1.74319968553338       -1.76912633201155        3.34645519195325
C           -0.69160946043003        0.13445447470305        2.57884255334867
C           -1.38420392802108       -1.46995156495507        4.65384031727373
C           -0.30209120323073        0.48620246397188        3.86121032115002
C           -0.61759141959438       -0.34921218798919        4.91883277947473
H           -1.70950745860906       -2.11590894767270        5.45436121656679
H            0.24223449403293        1.40310117819177        4.02046366866605
H           -0.30319145038133       -0.11406093625530        5.92268458330125
P           -2.30936941003245       -3.63472999298029        1.40165447976403
C           -3.97336299204155       -4.41895646515137        0.93183849494861
C           -1.04823634245606       -4.99296325401496        1.83883765745689
P           -0.47425336497691        0.12454301494698       -0.11336924572852
C            1.39185882753387        0.01543640426630       -0.49676642632590
C           -1.00030292481935        1.51058288800599       -1.30297748372347
C           -2.67832499370700       -2.90105880077205        3.05844952020690
H           -3.68348983939989       -2.46823540122512        2.96429472114502
H           -2.68830168415700       -3.63752391381629        3.86525551790719
C           -0.47328091443725        1.09551713679084        1.44317823165389
H           -1.35596554758234        1.75549554646857        1.40000666843374
H            0.41436849144390        1.72402874796924        1.58981319656929
C           -1.68568242317819       -2.38303341055629       -1.37347026530946
O           -1.81795700650851       -2.76217458572596       -2.45076874725277
H           -0.12488249713512       -2.38901823850276        0.52171145629916
C           -4.71073621413883       -5.10918526153823        2.08034808886536
C           -4.86767120602910       -3.29249171675287        0.40826119933896
C           -3.72878982029019       -5.39089767819521       -0.22362819989747
H           -4.95701680857608       -4.40883847262699        2.87527871311824
H           -5.64789840108300       -5.50997507845553        1.69494137885944
H           -4.15235302127869       -5.93523876427140        2.50409744756001
H           -4.43782449420013       -2.84125159202696       -0.48402611821954
H           -5.84649418651956       -3.69449214488806        0.15039024707657
H           -5.01318926890165       -2.50821437763844        1.14954079993206
H           -3.08067962141733       -4.92874976748429       -0.97033347612339
H           -3.27608056920136       -6.31970217401843        0.11388535764069
H           -4.67418923420509       -5.63825169360176       -0.70493478142700
C            0.01451140713302       -4.34692370475222        2.73513910457716
C           -1.61042065263544       -6.20094561818888        2.58584045187599
C           -0.38897765073423       -5.45322789216852        0.53716653136608
H           -0.35680629115178       -4.17240967942376        3.74335519867692
H            0.87745719251988       -5.00678004351214        2.80774160158608
H            0.36448318620270       -3.40221202071081        2.32245738589701
H           -2.26361389891807       -6.80079751808484        1.95901378751025
H           -0.77767397292419       -6.83572198140055        2.88824871147146
H           -2.14336288843054       -5.90737742115809        3.48831678517377
H           -1.07256396204530       -6.02998286919165       -0.07943034686218
H           -0.04787942256569       -4.59545533856015       -0.04129922273598
H            0.47522956843591       -6.07781638838986        0.75805334996333
Br          -0.46985851483920        1.02062275082190       -3.10202124646048
Br          -2.94243436395932        1.55571966354844       -1.22807636657328
Br          -0.42273866247685        3.34838701780828       -0.90615166394146
Br           1.65933096497226       -1.38380647061980       -1.81949218926693
Br           2.40264415368002        1.58156571978498       -1.07157532822371
Br           2.20924793803623       -0.58551797662519        1.16617541584106
